/*--------------------------------*- C++ -*----------------------------------*\
| =========                 |                                                 |
| \\      /  F ield         | OpenFOAM: The Open Source CFD Toolbox           |
|  \\    /   O peration     | Version:  2.4.x                                 |
|   \\  /    A nd           | Web:      www.OpenFOAM.org                      |
|    \\/     M anipulation  |                                                 |
\*---------------------------------------------------------------------------*/
FoamFile
{
    version     2.0;
    format      ascii;
    class       volScalarField;
    location    "0";
    object      T;
}
// * * * * * * * * * * * * * * * * * * * * * * * * * * * * * * * * * * * * * //

dimensions      [0 0 0 1 0 0 0];

internalField   nonuniform List<scalar> 
1001
(
100
102.4
104.8
107.2
109.6
112
114.4
116.8
119.2
121.6
124
126.4
128.8
131.2
133.6
136
138.4
140.8
143.2
145.6
148
150.4
152.8
155.2
157.6
160
162.4
164.8
167.2
169.6
172
174.4
176.8
179.2
181.6
184
186.4
188.8
191.2
193.6
196
198.4
200.8
203.2
205.6
208
210.4
212.8
215.2
217.6
220
222.4
224.8
227.2
229.6
232
234.4
236.8
239.2
241.6
244
246.4
248.8
251.2
253.6
256
258.4
260.8
263.2
265.6
268
270.4
272.8
275.2
277.6
280
282.4
284.8
287.2
289.6
292
294.4
296.8
299.2
301.6
304
306.4
308.8
311.2
313.6
316
318.4
320.8
323.2
325.6
328
330.4
332.8
335.2
337.6
340
342.4
344.8
347.2
349.6
352
354.4
356.8
359.2
361.6
364
366.4
368.8
371.2
373.6
376
378.4
380.8
383.2
385.6
388
390.4
392.8
395.2
397.6
400
402.4
404.8
407.2
409.6
412
414.4
416.8
419.2
421.6
424
426.4
428.8
431.2
433.6
436
438.4
440.8
443.2
445.6
448
450.4
452.8
455.2
457.6
460
462.4
464.8
467.2
469.6
472
474.4
476.8
479.2
481.6
484
486.4
488.8
491.2
493.6
496
498.4
500.8
503.2
505.6
508
510.4
512.8
515.2
517.6
520
522.4
524.8
527.2
529.6
532
534.4
536.8
539.2
541.6
544
546.4
548.8
551.2
553.6
556
558.4
560.8
563.2
565.6
568
570.4
572.8
575.2
577.6
580
582.4
584.8
587.2
589.6
592
594.4
596.8
599.2
601.6
604
606.4
608.8
611.2
613.6
616
618.4
620.8
623.2
625.6
628
630.4
632.8
635.2
637.6
640
642.4
644.8
647.2
649.6
652
654.4
656.8
659.2
661.6
664
666.4
668.8
671.2
673.6
676
678.4
680.8
683.2
685.6
688
690.4
692.8
695.2
697.6
700
702.4
704.8
707.2
709.6
712
714.4
716.8
719.2
721.6
724
726.4
728.8
731.2
733.6
736
738.4
740.8
743.2
745.6
748
750.4
752.8
755.2
757.6
760
762.4
764.8
767.2
769.6
772
774.4
776.8
779.2
781.6
784
786.4
788.8
791.2
793.6
796
798.4
800.8
803.2
805.6
808
810.4
812.8
815.2
817.6
820
822.4
824.8
827.2
829.6
832
834.4
836.8
839.2
841.6
844
846.4
848.8
851.2
853.6
856
858.4
860.8
863.2
865.6
868
870.4
872.8
875.2
877.6
880
882.4
884.8
887.2
889.6
892
894.4
896.8
899.2
901.6
904
906.4
908.8
911.2
913.6
916
918.4
920.8
923.2
925.6
928
930.4
932.8
935.2
937.6
940
942.4
944.8
947.2
949.6
952
954.4
956.8
959.2
961.6
964
966.4
968.8
971.2
973.6
976
978.4
980.8
983.2
985.6
988
990.4
992.8
995.2
997.6
1000
1002.4
1004.8
1007.2
1009.6
1012
1014.4
1016.8
1019.2
1021.6
1024
1026.4
1028.8
1031.2
1033.6
1036
1038.4
1040.8
1043.2
1045.6
1048
1050.4
1052.8
1055.2
1057.6
1060
1062.4
1064.8
1067.2
1069.6
1072
1074.4
1076.8
1079.2
1081.6
1084
1086.4
1088.8
1091.2
1093.6
1096
1098.4
1100.8
1103.2
1105.6
1108
1110.4
1112.8
1115.2
1117.6
1120
1122.4
1124.8
1127.2
1129.6
1132
1134.4
1136.8
1139.2
1141.6
1144
1146.4
1148.8
1151.2
1153.6
1156
1158.4
1160.8
1163.2
1165.6
1168
1170.4
1172.8
1175.2
1177.6
1180
1182.4
1184.8
1187.2
1189.6
1192
1194.4
1196.8
1199.2
1201.6
1204
1206.4
1208.8
1211.2
1213.6
1216
1218.4
1220.8
1223.2
1225.6
1228
1230.4
1232.8
1235.2
1237.6
1240
1242.4
1244.8
1247.2
1249.6
1252
1254.4
1256.8
1259.2
1261.6
1264
1266.4
1268.8
1271.2
1273.6
1276
1278.4
1280.8
1283.2
1285.6
1288
1290.4
1292.8
1295.2
1297.6
1300
1302.4
1304.8
1307.2
1309.6
1312
1314.4
1316.8
1319.2
1321.6
1324
1326.4
1328.8
1331.2
1333.6
1336
1338.4
1340.8
1343.2
1345.6
1348
1350.4
1352.8
1355.2
1357.6
1360
1362.4
1364.8
1367.2
1369.6
1372
1374.4
1376.8
1379.2
1381.6
1384
1386.4
1388.8
1391.2
1393.6
1396
1398.4
1400.8
1403.2
1405.6
1408
1410.4
1412.8
1415.2
1417.6
1420
1422.4
1424.8
1427.2
1429.6
1432
1434.4
1436.8
1439.2
1441.6
1444
1446.4
1448.8
1451.2
1453.6
1456
1458.4
1460.8
1463.2
1465.6
1468
1470.4
1472.8
1475.2
1477.6
1480
1482.4
1484.8
1487.2
1489.6
1492
1494.4
1496.8
1499.2
1501.6
1504
1506.4
1508.8
1511.2
1513.6
1516
1518.4
1520.8
1523.2
1525.6
1528
1530.4
1532.8
1535.2
1537.6
1540
1542.4
1544.8
1547.2
1549.6
1552
1554.4
1556.8
1559.2
1561.6
1564
1566.4
1568.8
1571.2
1573.6
1576
1578.4
1580.8
1583.2
1585.6
1588
1590.4
1592.8
1595.2
1597.6
1600
1602.4
1604.8
1607.2
1609.6
1612
1614.4
1616.8
1619.2
1621.6
1624
1626.4
1628.8
1631.2
1633.6
1636
1638.4
1640.8
1643.2
1645.6
1648
1650.4
1652.8
1655.2
1657.6
1660
1662.4
1664.8
1667.2
1669.6
1672
1674.4
1676.8
1679.2
1681.6
1684
1686.4
1688.8
1691.2
1693.6
1696
1698.4
1700.8
1703.2
1705.6
1708
1710.4
1712.8
1715.2
1717.6
1720
1722.4
1724.8
1727.2
1729.6
1732
1734.4
1736.8
1739.2
1741.6
1744
1746.4
1748.8
1751.2
1753.6
1756
1758.4
1760.8
1763.2
1765.6
1768
1770.4
1772.8
1775.2
1777.6
1780
1782.4
1784.8
1787.2
1789.6
1792
1794.4
1796.8
1799.2
1801.6
1804
1806.4
1808.8
1811.2
1813.6
1816
1818.4
1820.8
1823.2
1825.6
1828
1830.4
1832.8
1835.2
1837.6
1840
1842.4
1844.8
1847.2
1849.6
1852
1854.4
1856.8
1859.2
1861.6
1864
1866.4
1868.8
1871.2
1873.6
1876
1878.4
1880.8
1883.2
1885.6
1888
1890.4
1892.8
1895.2
1897.6
1900
1902.4
1904.8
1907.2
1909.6
1912
1914.4
1916.8
1919.2
1921.6
1924
1926.4
1928.8
1931.2
1933.6
1936
1938.4
1940.8
1943.2
1945.6
1948
1950.4
1952.8
1955.2
1957.6
1960
1962.4
1964.8
1967.2
1969.6
1972
1974.4
1976.8
1979.2
1981.6
1984
1986.4
1988.8
1991.2
1993.6
1996
1998.4
2000.8
2003.2
2005.6
2008
2010.4
2012.8
2015.2
2017.6
2020
2022.4
2024.8
2027.2
2029.6
2032
2034.4
2036.8
2039.2
2041.6
2044
2046.4
2048.8
2051.2
2053.6
2056
2058.4
2060.8
2063.2
2065.6
2068
2070.4
2072.8
2075.2
2077.6
2080
2082.4
2084.8
2087.2
2089.6
2092
2094.4
2096.8
2099.2
2101.6
2104
2106.4
2108.8
2111.2
2113.6
2116
2118.4
2120.8
2123.2
2125.6
2128
2130.4
2132.8
2135.2
2137.6
2140
2142.4
2144.8
2147.2
2149.6
2152
2154.4
2156.8
2159.2
2161.6
2164
2166.4
2168.8
2171.2
2173.6
2176
2178.4
2180.8
2183.2
2185.6
2188
2190.4
2192.8
2195.2
2197.6
2200
2202.4
2204.8
2207.2
2209.6
2212
2214.4
2216.8
2219.2
2221.6
2224
2226.4
2228.8
2231.2
2233.6
2236
2238.4
2240.8
2243.2
2245.6
2248
2250.4
2252.8
2255.2
2257.6
2260
2262.4
2264.8
2267.2
2269.6
2272
2274.4
2276.8
2279.2
2281.6
2284
2286.4
2288.8
2291.2
2293.6
2296
2298.4
2300.8
2303.2
2305.6
2308
2310.4
2312.8
2315.2
2317.6
2320
2322.4
2324.8
2327.2
2329.6
2332
2334.4
2336.8
2339.2
2341.6
2344
2346.4
2348.8
2351.2
2353.6
2356
2358.4
2360.8
2363.2
2365.6
2368
2370.4
2372.8
2375.2
2377.6
2380
2382.4
2384.8
2387.2
2389.6
2392
2394.4
2396.8
2399.2
2401.6
2404
2406.4
2408.8
2411.2
2413.6
2416
2418.4
2420.8
2423.2
2425.6
2428
2430.4
2432.8
2435.2
2437.6
2440
2442.4
2444.8
2447.2
2449.6
2452
2454.4
2456.8
2459.2
2461.6
2464
2466.4
2468.8
2471.2
2473.6
2476
2478.4
2480.8
2483.2
2485.6
2488
2490.4
2492.8
2495.2
2497.6
2500
)
;

boundaryField
{
    wall
    {
        type            empty;
    }
    inlet
    {
        type            empty;
    }
    outlet
    {
        type            empty;
    }
    frontAndBack
    {
        type            empty;
    }
}


// ************************************************************************* //
